LAMMPS Description
  
2100 atoms 
3 atom types        
0 bonds                
0 angles               
0 dihedrals
0 impropers

0.0 0.5 xlo xhi       
-0.005 0.805 ylo yhi        
-0.005 0.005 zlo zhi

Atoms

1	2	0.0100000000000000	2600	0.0100000000000000	0.196069110470442	0
2	2	0.0100000000000000	2600	0.0200000000000000	0.196069110470442	0
3	2	0.0100000000000000	2600	0.0300000000000000	0.196069110470442	0
4	2	0.0100000000000000	2600	0.0400000000000000	0.196069110470442	0
5	2	0.0100000000000000	2600	0.0500000000000000	0.196069110470442	0
6	2	0.0100000000000000	2600	0.0600000000000000	0.196069110470442	0
7	2	0.0100000000000000	2600	0.0700000000000000	0.196069110470442	0
8	2	0.0100000000000000	2600	0.0800000000000000	0.196069110470442	0
9	2	0.0100000000000000	2600	0.0900000000000000	0.196069110470442	0
10	2	0.0100000000000000	2600	0.100000000000000	0.196069110470442	0
11	2	0.0100000000000000	2600	0.110000000000000	0.196069110470442	0
12	2	0.0100000000000000	2600	0.120000000000000	0.196069110470442	0
13	2	0.0100000000000000	2600	0.130000000000000	0.196069110470442	0
14	2	0.0100000000000000	2600	0.140000000000000	0.196069110470442	0
15	2	0.0100000000000000	2600	0.150000000000000	0.196069110470442	0
16	2	0.0100000000000000	2600	0.160000000000000	0.196069110470442	0
17	2	0.0100000000000000	2600	0.170000000000000	0.196069110470442	0
18	2	0.0100000000000000	2600	0.180000000000000	0.196069110470442	0
19	2	0.0100000000000000	2600	0.190000000000000	0.196069110470442	0
20	2	0.0100000000000000	2600	0.200000000000000	0.196069110470442	0
21	2	0.0100000000000000	2600	0.210000000000000	0.196069110470442	0
22	2	0.0100000000000000	2600	0.220000000000000	0.196069110470442	0
23	2	0.0100000000000000	2600	0.230000000000000	0.196069110470442	0
24	2	0.0100000000000000	2600	0.240000000000000	0.196069110470442	0
25	2	0.0100000000000000	2600	0.250000000000000	0.196069110470442	0
26	2	0.0100000000000000	2600	0.260000000000000	0.196069110470442	0
27	2	0.0100000000000000	2600	0.270000000000000	0.196069110470442	0
28	2	0.0100000000000000	2600	0.280000000000000	0.196069110470442	0
29	2	0.0100000000000000	2600	0.290000000000000	0.196069110470442	0
30	2	0.0100000000000000	2600	0.300000000000000	0.196069110470442	0
31	2	0.0100000000000000	2600	0.310000000000000	0.196069110470442	0
32	2	0.0100000000000000	2600	0.320000000000000	0.196069110470442	0
33	2	0.0100000000000000	2600	0.330000000000000	0.196069110470442	0
34	2	0.0100000000000000	2600	0.340000000000000	0.196069110470442	0
35	2	0.0100000000000000	2600	0.350000000000000	0.196069110470442	0
36	2	0.0100000000000000	2600	0.360000000000000	0.196069110470442	0
37	2	0.0100000000000000	2600	0.370000000000000	0.196069110470442	0
38	2	0.0100000000000000	2600	0.380000000000000	0.196069110470442	0
39	2	0.0100000000000000	2600	0.390000000000000	0.196069110470442	0
40	2	0.0100000000000000	2600	0.400000000000000	0.196069110470442	0
41	2	0.0100000000000000	2600	0.410000000000000	0.196069110470442	0
42	2	0.0100000000000000	2600	0.420000000000000	0.196069110470442	0
43	2	0.0100000000000000	2600	0.430000000000000	0.196069110470442	0
44	2	0.0100000000000000	2600	0.440000000000000	0.196069110470442	0
45	2	0.0100000000000000	2600	0.450000000000000	0.196069110470442	0
46	2	0.0100000000000000	2600	0.460000000000000	0.196069110470442	0
47	2	0.0100000000000000	2600	0.470000000000000	0.196069110470442	0
48	2	0.0100000000000000	2600	0.480000000000000	0.196069110470442	0
49	2	0.0100000000000000	2600	0.490000000000000	0.196069110470442	0
50	2	0.0100000000000000	2600	0	0.196069110470442	0
51	3	0.0100000000000000	2600	0.0100000000000000	0.594539007435582	0
52	3	0.0100000000000000	2600	0.0200000000000000	0.594539007435582	0
53	3	0.0100000000000000	2600	0.0300000000000000	0.594539007435582	0
54	3	0.0100000000000000	2600	0.0400000000000000	0.594539007435582	0
55	3	0.0100000000000000	2600	0.0500000000000000	0.594539007435582	0
56	3	0.0100000000000000	2600	0.0600000000000000	0.594539007435582	0
57	3	0.0100000000000000	2600	0.0700000000000000	0.594539007435582	0
58	3	0.0100000000000000	2600	0.0800000000000000	0.594539007435582	0
59	3	0.0100000000000000	2600	0.0900000000000000	0.594539007435582	0
60	3	0.0100000000000000	2600	0.100000000000000	0.594539007435582	0
61	3	0.0100000000000000	2600	0.110000000000000	0.594539007435582	0
62	3	0.0100000000000000	2600	0.120000000000000	0.594539007435582	0
63	3	0.0100000000000000	2600	0.130000000000000	0.594539007435582	0
64	3	0.0100000000000000	2600	0.140000000000000	0.594539007435582	0
65	3	0.0100000000000000	2600	0.150000000000000	0.594539007435582	0
66	3	0.0100000000000000	2600	0.160000000000000	0.594539007435582	0
67	3	0.0100000000000000	2600	0.170000000000000	0.594539007435582	0
68	3	0.0100000000000000	2600	0.180000000000000	0.594539007435582	0
69	3	0.0100000000000000	2600	0.190000000000000	0.594539007435582	0
70	3	0.0100000000000000	2600	0.200000000000000	0.594539007435582	0
71	3	0.0100000000000000	2600	0.210000000000000	0.594539007435582	0
72	3	0.0100000000000000	2600	0.220000000000000	0.594539007435582	0
73	3	0.0100000000000000	2600	0.230000000000000	0.594539007435582	0
74	3	0.0100000000000000	2600	0.240000000000000	0.594539007435582	0
75	3	0.0100000000000000	2600	0.250000000000000	0.594539007435582	0
76	3	0.0100000000000000	2600	0.260000000000000	0.594539007435582	0
77	3	0.0100000000000000	2600	0.270000000000000	0.594539007435582	0
78	3	0.0100000000000000	2600	0.280000000000000	0.594539007435582	0
79	3	0.0100000000000000	2600	0.290000000000000	0.594539007435582	0
80	3	0.0100000000000000	2600	0.300000000000000	0.594539007435582	0
81	3	0.0100000000000000	2600	0.310000000000000	0.594539007435582	0
82	3	0.0100000000000000	2600	0.320000000000000	0.594539007435582	0
83	3	0.0100000000000000	2600	0.330000000000000	0.594539007435582	0
84	3	0.0100000000000000	2600	0.340000000000000	0.594539007435582	0
85	3	0.0100000000000000	2600	0.350000000000000	0.594539007435582	0
86	3	0.0100000000000000	2600	0.360000000000000	0.594539007435582	0
87	3	0.0100000000000000	2600	0.370000000000000	0.594539007435582	0
88	3	0.0100000000000000	2600	0.380000000000000	0.594539007435582	0
89	3	0.0100000000000000	2600	0.390000000000000	0.594539007435582	0
90	3	0.0100000000000000	2600	0.400000000000000	0.594539007435582	0
91	3	0.0100000000000000	2600	0.410000000000000	0.594539007435582	0
92	3	0.0100000000000000	2600	0.420000000000000	0.594539007435582	0
93	3	0.0100000000000000	2600	0.430000000000000	0.594539007435582	0
94	3	0.0100000000000000	2600	0.440000000000000	0.594539007435582	0
95	3	0.0100000000000000	2600	0.450000000000000	0.594539007435582	0
96	3	0.0100000000000000	2600	0.460000000000000	0.594539007435582	0
97	3	0.0100000000000000	2600	0.470000000000000	0.594539007435582	0
98	3	0.0100000000000000	2600	0.480000000000000	0.594539007435582	0
99	3	0.0100000000000000	2600	0.490000000000000	0.594539007435582	0
100	3	0.0100000000000000	2600	0	0.594539007435582	0
101	1	0.0102775880853432	2600	0.384995232277233	0.450841282037431	0
102	1	0.00890196075270716	2600	0.458658138004621	0.540485238598697	0
103	1	0.00945971623313617	2600	0.314807005893396	0.472152186081084	0
104	1	0.0109439645551710	2600	0.206231327352129	0.551503850203767	0
105	1	0.0105604097507848	2600	0.195115515110503	0.207438067600650	0
106	1	0.00974500180411337	2600	0.0436686698526989	0.240441617932728	0
107	1	0.00947210436129782	2600	0.467725474050673	0.539110948012269	0
108	1	0.00922428905349941	2600	0.231394397960320	0.326207870449362	0
109	1	0.0100143687338256	2600	0.240575903531469	0.399421217423621	0
110	1	0.00912009134343934	2600	0.0631558868063958	0.374020425193899	0
111	1	0.00967152036562429	2600	0.203898172875789	0.512121174465793	0
112	1	0.0118825345366240	2600	0.238421449412139	0.214374397233686	0
113	1	0.00874538516876791	2600	0.108522599211623	0.460470355831300	0
114	1	0.0115758834083766	2600	0.322489431340594	0.464802324373409	0
115	1	0.00822089625623694	2600	0.102316637893293	0.441915549212476	0
116	1	0.00820559165032908	2600	0.264482596428739	0.411774584906024	0
117	1	0.00852176470433322	2600	0.402454402816310	0.225083223766550	0
118	1	0.0117790652373530	2600	0.405697187521341	0.382140778187444	0
119	1	0.00862676329065384	2600	0.0129461883769494	0.561642979202984	0
120	1	0.0117640244209029	2600	0.447702398365068	0.224852123639066	0
121	1	0.0119233188402558	2600	0.166893674210356	0.312655135807068	0
122	1	0.0100578654550583	2600	0.269517924987914	0.483893514891309	0
123	1	0.00860524397514174	2600	0.199821938379155	0.402897628724852	0
124	1	0.00937804113096549	2600	0.424513218958483	0.461877986351284	0
125	1	0.00807546186455711	2600	0.426429250777955	0.388104608287930	0
126	1	0.00885689798324896	2600	0.267819438532004	0.419609422501590	0
127	1	0.00967554801767834	2600	0.271732954145653	0.359989682748803	0
128	1	0.0112635615319012	2600	0.417528927924957	0.529825948394892	0
129	1	0.00882298954680089	2600	0.308308785942786	0.416616234716337	0
130	1	0.00807524328968708	2600	0.272671535168977	0.368805837547432	0
131	1	0.00902059837904886	2600	0.472047563244443	0.507343577609127	0
132	1	0.0118614327556394	2600	0.488112854418167	0.454530493040796	0
133	1	0.00994085014874589	2600	0.463432371840976	0.431139916878732	0
134	1	0.00900435764488637	2600	0.194676188034442	0.329091625245404	0
135	1	0.0111018331439655	2600	0.288027710074902	0.528177052961065	0
136	1	0.0107097107067468	2600	0.103801538056034	0.281382398224243	0
137	1	0.00887528120596649	2600	0.0251568863248261	0.586397941097186	0
138	1	0.0104925804151034	2600	0.469114770252334	0.339531360109255	0
139	1	0.00800167937467418	2600	0.0549469086021523	0.471831506979419	0
140	1	0.00995842536451924	2600	0.113402768049928	0.398484230801692	0
141	1	0.00853656935216986	2600	0.115754350174397	0.536945947089916	0
142	1	0.0112690431739806	2600	0.240430565529116	0.365759760605251	0
143	1	0.00999305436028686	2600	0.275901254888238	0.565276353620821	0
144	1	0.0103208804058022	2600	0.0407015101206543	0.416225604751114	0
145	1	0.00894533213540830	2600	0.00711832754471935	0.221231169842540	0
146	1	0.0101648647151040	2600	0.378333895678591	0.373292987147199	0
147	1	0.0116914081964081	2600	0.320249527034560	0.245507236532723	0
148	1	0.00962422773571738	2600	0.487903684261396	0.432401864039145	0
149	1	0.00858984437215844	2600	0.0297796986368032	0.410455366464262	0
150	1	0.0104678991783464	2600	0.0548604912129710	0.205068337791631	0
151	1	0.0102311772882579	2600	0.0961359946866736	0.396766571769226	0
152	1	0.0105957376887327	2600	0.318632141555759	0.576224554656554	0
153	1	0.00903875558028447	2600	0.413627344190831	0.566880942216086	0
154	1	0.00912205743276085	2600	0.261931707502168	0.477813593102383	0
155	1	0.0118842670897050	2600	0.0535640565265930	0.489513373545758	0
156	1	0.0111909903721876	2600	0.139073168230480	0.244916362794209	0
157	1	0.00868246569458911	2600	0.276574972084957	0.419258982682855	0
158	1	0.0117779394564612	2600	0.0592706524894422	0.567154823700353	0
159	1	0.0102468539216005	2600	0.0530979999597186	0.558041164617518	0
160	1	0.00836415458591893	2600	0.440313824075428	0.232448702159437	0
161	1	0.0101393027566439	2600	0.304738870606552	0.529587980246965	0
162	1	0.0117252953411165	2600	0.152839829637956	0.486065202649132	0
163	1	0.0114380428477855	2600	0.157265720714942	0.417526350327473	0
164	1	0.00958711948820265	2600	0.371398633463600	0.528581168731299	0
165	1	0.0107986772808840	2600	0.480550294952787	0.330467837873871	0
166	1	0.0109920392878595	2600	0.0324787519303372	0.357760571664950	0
167	1	0.00809044435299256	2600	0.104928180695165	0.394223983035253	0
168	1	0.0116003645177788	2600	0.0296397915870656	0.234660588388133	0
169	1	0.0106716915816573	2600	0.0555641147919800	0.528374333922907	0
170	1	0.0104432808068894	2600	0.424352870072936	0.445188824221291	0
171	1	0.0102671837727599	2600	0.455005806118424	0.354971473317371	0
172	1	0.00854537400443719	2600	0.113024859127417	0.452336391700656	0
173	1	0.00856378722044554	2600	0.258048564750613	0.390959974913048	0
174	1	0.00990932569088500	2600	0.00894491828291871	0.320551545727831	0
175	1	0.0100389778451355	2600	0.320667548411082	0.392048700774053	0
176	1	0.00955068387049161	2600	0.0771391541611922	0.240858925274915	0
177	1	0.0102683964687477	2600	0.162286101905815	0.369894071702222	0
178	1	0.0101283668292424	2600	0.483189641137268	0.205603462757209	0
179	1	0.0101178003014489	2600	0.236817771788326	0.290723549353943	0
180	1	0.0101928289864255	2600	0.221077135423206	0.332465373321794	0
181	1	0.0102433100472819	2600	0.221470288534568	0.565994486738034	0
182	1	0.00852903075846176	2600	0.120234642139702	0.447748217295510	0
183	1	0.00867305147728597	2600	0.311184122795914	0.251181380539869	0
184	1	0.0117105206736918	2600	0.350311549986314	0.430986603473655	0
185	1	0.0110354425055653	2600	0.404584371120246	0.548015820499669	0
186	1	0.00899074819428810	2600	0.0215586669920127	0.490133700702958	0
187	1	0.0115558503026447	2600	0.0508331141454743	0.384900878372477	0
188	1	0.00821791839250025	2600	0.202803251244525	0.567209031035381	0
189	1	0.00872467225006171	2600	0.411869763568274	0.355452590011449	0
190	1	0.0106286137388023	2600	0.104885968424770	0.520841970830839	0
191	1	0.0113229467472174	2600	0.135688567557141	0.530210642822561	0
192	1	0.0100830992241994	2600	0.442903840802663	0.552181326644346	0
193	1	0.00842363679212762	2600	0.0668328532691082	0.440346986231121	0
194	1	0.00856280098874482	2600	0.215620204867176	0.573363011040887	0
195	1	0.0109811335697600	2600	0.194265542376170	0.350250078167279	0
196	1	0.0107112611479904	2600	0.0226151052729489	0.435772142517337	0
197	1	0.00990039269152557	2600	0.0533985522696156	0.335428886430752	0
198	1	0.0115476565593033	2600	0.460443629305373	0.206814512652899	0
199	1	0.00977037575918360	2600	0.0495882243539080	0.353757356727316	0
200	1	0.00943760083694316	2600	0.354501371641456	0.215985780791377	0
201	1	0.0114695816293876	2600	0.209159283001359	0.299650814280073	0
202	1	0.00878139016354370	2600	0.238010468969482	0.562536451020364	0
203	1	0.00803073742586070	2600	0.284018379931820	0.239058365202668	0
204	1	0.0107251774439990	2600	0.444100735548850	0.529516952569242	0
205	1	0.00979996803467100	2600	0.00380584712410171	0.261379068658562	0
206	1	0.00969515148953676	2600	0.474859530442163	0.397865826804904	0
207	1	0.00820597982052985	2600	0.486797443334434	0.302728111298752	0
208	1	0.0109163379951907	2600	0.117180231394109	0.423917146743504	0
209	1	0.00823523599420981	2600	0.290025926881206	0.426779077712474	0
210	1	0.0103237269862167	2600	0.134703221167752	0.322821350476448	0
211	1	0.0110417722929414	2600	0.352672093747896	0.413949630473533	0
212	1	0.00916448845310281	2600	0.158530422230587	0.269599070543306	0
213	1	0.0108562647321682	2600	0.128155899208304	0.226191207019371	0
214	1	0.0104559209192126	2600	0.0628729691093677	0.394661344783057	0
215	1	0.00842042067110277	2600	0.307398038946016	0.230806686733284	0
216	1	0.00965096219065824	2600	0.119322237386886	0.312426058184983	0
217	1	0.00974632683500650	2600	0.0486977238350384	0.344047266741639	0
218	1	0.00950160666771616	2600	0.106731659085091	0.368553276970846	0
219	1	0.00962549385059730	2600	0.248664782111349	0.534191490326897	0
220	1	0.0108946063914044	2600	0.319219615176566	0.545144335507446	0
221	1	0.0114381186786549	2600	0.486053812588071	0.582723348275100	0
222	1	0.00811315292414763	2600	0.355779502074693	0.536423722249219	0
223	1	0.0100030703644900	2600	0.375354338086572	0.395737469187470	0
224	1	0.0114555599949354	2600	0.269331988704122	0.573951457633900	0
225	1	0.00993724792348591	2600	0.215224730391917	0.262179096678459	0
226	1	0.0119225172519091	2600	0.266078709867948	0.468145054301747	0
227	1	0.00863124481723628	2600	0.00490824295276946	0.339785532065658	0
228	1	0.00829412653602076	2600	0.471045701904731	0.492552799801469	0
229	1	0.00912189172909104	2600	0.206683824371276	0.232154912328843	0
230	1	0.0113104967787196	2600	0.105641002354440	0.225959647552218	0
231	1	0.00998778776996821	2600	0.378210461508390	0.268750974922515	0
232	1	0.00880303004103277	2600	0.349310444397791	0.577093569784944	0
233	1	0.00996919662374192	2600	0.0110467062887953	0.391602376577874	0
234	1	0.0100383275591161	2600	0.486441705622842	0.311826557256149	0
235	1	0.0117460989962472	2600	0.230941196356743	0.485486225496632	0
236	1	0.0100847738352530	2600	0.270819771979799	0.216873569092891	0
237	1	0.00822855593724028	2600	0.400206524723854	0.407827573873170	0
238	1	0.0103760868331342	2600	0.191040091783899	0.443162955173000	0
239	1	0.00907402477025690	2600	0.260089419387955	0.519973164249634	0
240	1	0.0105970695873542	2600	0.277436238102013	0.583759621475102	0
241	1	0.00821666821296327	2600	0.178475203696038	0.463793882289099	0
242	1	0.0114019507413431	2600	0.0628644905370634	0.540482316475859	0
243	1	0.0111075590735823	2600	0.120120668937629	0.505366139829156	0
244	1	0.0100237174493633	2600	0.472138531419132	0.235967363416540	0
245	1	0.00964260724692731	2600	0.0393223106583686	0.455824210109170	0
246	1	0.0115073556650370	2600	0.245777333438645	0.284716514804537	0
247	1	0.00856469828650351	2600	0.363362256398020	0.501703101993657	0
248	1	0.0113317284499575	2600	0.253382447193722	0.361888076564007	0
249	1	0.0110499526262321	2600	0.0990409317213422	0.463268047180389	0
250	1	0.00912510023396579	2600	0.375727190793342	0.585989461468429	0
251	1	0.0103852343494505	2600	0.249876857188370	0.499797329410429	0
252	1	0.0107267060246621	2600	0.418103415265129	0.454140452892627	0
253	1	0.00855419440149293	2600	0.444605446684662	0.508934037492624	0
254	1	0.00991436753907242	2600	0.425126741086713	0.537204549997460	0
255	1	0.0103721840706093	2600	0.0956598666257422	0.317207645065730	0
256	1	0.00929511396549756	2600	0.466394686853213	0.449161029076922	0
257	1	0.0104529945806491	2600	0.443893359020887	0.566429220425814	0
258	1	0.00926994529807595	2600	0.186376544663868	0.356621336564139	0
259	1	0.00952814738113451	2600	0.353285908029899	0.259028877269546	0
260	1	0.0104870692437615	2600	0.298045640036740	0.351747395888054	0
261	1	0.0103633395872964	2600	0.166477142999365	0.263964413998974	0
262	1	0.0101983108009119	2600	0.461210315694186	0.440924324562063	0
263	1	0.00842369732813494	2600	0.358263466679092	0.353467052506094	0
264	1	0.00875333401018741	2600	0.306879859324396	0.258962080772439	0
265	1	0.0104281843119957	2600	0.0707533716015497	0.223701585832497	0
266	1	0.00839242139080083	2600	0.0499863024460267	0.508909370711330	0
267	1	0.00878703465166932	2600	0.180705252301345	0.271548718966930	0
268	1	0.00867343519736016	2600	0.141303533460804	0.475334469977274	0
269	1	0.00961892294650670	2600	0.0514647733804095	0.500036144544272	0
270	1	0.0107027661905818	2600	0.0677333229020137	0.458450476844256	0
271	1	0.0117693836691213	2600	0.282183654316281	0.362327284664437	0
272	1	0.0114394438458119	2600	0.434541764114786	0.510577056511367	0
273	1	0.00842900687990677	2600	0.320885709357111	0.554653173746052	0
274	1	0.00931300926112413	2600	0.413178438696135	0.237971394882719	0
275	1	0.0115427790124347	2600	0.128910117466191	0.287842214558447	0
276	1	0.00939856702704144	2600	0.0664915685008618	0.322072092782669	0
277	1	0.0102579572456982	2600	0.215072372255105	0.414569602465044	0
278	1	0.00938125289153627	2600	0.365776063457790	0.455906873466123	0
279	1	0.00951102757425827	2600	0.435002527186416	0.443242421194428	0
280	1	0.0118163351664527	2600	0.173220318145534	0.517587921480635	0
281	1	0.0104742795647520	2600	0.134236055364723	0.382325013859946	0
282	1	0.0119894978659484	2600	0.224871224900338	0.206167173812907	0
283	1	0.00815804236352383	2600	0.0737621679159705	0.338703446666139	0
284	1	0.00904035107708181	2600	0.289674829955278	0.263214881623816	0
285	1	0.00849926212721158	2600	0.139760883336228	0.391078721231458	0
286	1	0.0115500272769556	2600	0.0832044474278274	0.540304009673384	0
287	1	0.0101473218295681	2600	0.0151144266505912	0.231377090421004	0
288	1	0.0102028511720587	2600	0.295937698077023	0.361872789299714	0
289	1	0.00912762608703382	2600	0.412458391219242	0.374188886719109	0
290	1	0.00898199536070732	2600	0.317560867634609	0.265035615073481	0
291	1	0.0113151611882728	2600	0.278444334358569	0.455264264932745	0
292	1	0.0108064847439043	2600	0.289412029139273	0.251310256914630	0
293	1	0.00948691323120491	2600	0.280351613124716	0.521240006831135	0
294	1	0.0112277570301233	2600	0.386590185330764	0.345539448822395	0
295	1	0.0119576882650253	2600	0.222885311827375	0.343391649438891	0
296	1	0.00858846042869827	2600	0.392750916206601	0.301013319190110	0
297	1	0.00952009881559955	2600	0.162676273364508	0.277963384837496	0
298	1	0.00986416821968244	2600	0.359439216011891	0.528080953028475	0
299	1	0.00958457196446724	2600	0.213377460235543	0.359416419742366	0
300	1	0.00895228516970554	2600	0.237607266752523	0.244418808926809	0
301	1	0.00941854787904039	2600	0.370097528862439	0.286062304559042	0
302	1	0.0104334360295615	2600	0.100950068241755	0.548758309176258	0
303	1	0.0101962541243472	2600	0.361164377563368	0.317532936648109	0
304	1	0.00826602869716709	2600	0.285447536632747	0.203995072011331	0
305	1	0.00910417359467075	2600	0.301636012421242	0.466562790302110	0
306	1	0.0108896850039743	2600	0.361136054418160	0.265522278423035	0
307	1	0.00881637204300967	2600	0.333288198606599	0.280790832438566	0
308	1	0.00864636150611310	2600	0.0793424727938155	0.549630491439057	0
309	1	0.00807078081576261	2600	0.396796758523382	0.365137233417664	0
310	1	0.00881236316955319	2600	0.185307617762590	0.312703870520949	0
311	1	0.0106282823871143	2600	0.0277679895643058	0.462403838615616	0
312	1	0.00831969571549599	2600	0.0276069609116837	0.349171066211626	0
313	1	0.0112469460979413	2600	0.380493010236851	0.386472085549560	0
314	1	0.00978956831219369	2600	0.00642983366062370	0.433658062596766	0
315	1	0.00935370687451378	2600	0.157112437194025	0.307314889054456	0
316	1	0.00950728526593227	2600	0.0733887419637198	0.262320884982889	0
317	1	0.00823137482741593	2600	0.0849611056964008	0.409932101568222	0
318	1	0.00817083769931709	2600	0.119704700163551	0.256896977157407	0
319	1	0.00906591014123725	2600	0.409475638354720	0.264487345789840	0
320	1	0.0103849649134155	2600	0.190740318969277	0.487813318135956	0
321	1	0.0119230588045414	2600	0.297933397044228	0.420538689467081	0
322	1	0.00846647287298191	2600	0.351437088013306	0.467316595033223	0
323	1	0.0102941371808587	2600	0.321999854995910	0.381918788335295	0
324	1	0.00910107561077861	2600	0.240208933742217	0.500948300285478	0
325	1	0.00821920031892278	2600	0.300791692569333	0.430192440124017	0
326	1	0.00887244443967740	2600	0.00248226840174123	0.313744689863460	0
327	1	0.00905501244694394	2600	0.431265002363686	0.231420272228402	0
328	1	0.00958088280074402	2600	0.0948051768085882	0.327122972322440	0
329	1	0.00836662037317544	2600	0.379297878810296	0.223765899010761	0
330	1	0.0105264888507433	2600	0.485943255983827	0.481471445975662	0
331	1	0.0109402453046263	2600	0.0489318484793754	0.479128329617455	0
332	1	0.0106708710036845	2600	0.335394347224940	0.424749813210890	0
333	1	0.0115029868367977	2600	0.316661869407458	0.292218326622944	0
334	1	0.0112355118421885	2600	0.0446595737381380	0.532046042894582	0
335	1	0.0118155947994068	2600	0.0598821390700179	0.432994389910726	0
336	1	0.00917439991490187	2600	0.0651104269968159	0.299543430012183	0
337	1	0.00965663694139678	2600	0.462309990508180	0.235811816999082	0
338	1	0.00899335887702769	2600	0.202096834828509	0.308582958479836	0
339	1	0.00969662107376408	2600	0.135463365475547	0.460526009072982	0
340	1	0.00898276909923242	2600	0.117361416286220	0.460041131597062	0
341	1	0.00822286381616925	2600	0.186347758839781	0.549731405507928	0
342	1	0.00845090520154581	2600	0.406681053194997	0.245396530534697	0
343	1	0.00934146229869108	2600	0.427189580298963	0.396765390680154	0
344	1	0.00878092044543150	2600	0.0341210807023670	0.502214056878229	0
345	1	0.00979400482503020	2600	0.421419639341438	0.371204250446486	0
346	1	0.00877246464369363	2600	0.365175519519734	0.204103392434040	0
347	1	0.0117950529713625	2600	0.479638448867616	0.277344090182808	0
348	1	0.0107394808736435	2600	0.229610674518169	0.308776827958165	0
349	1	0.0115805507126744	2600	0.435730650561910	0.306898950402602	0
350	1	0.0107495462832140	2600	0.350245213050704	0.225136927569874	0
351	1	0.0115066375792276	2600	0.255278110023315	0.350631408775427	0
352	1	0.0101482811725908	2600	0.490609537462692	0.385580137714042	0
353	1	0.0109401545778508	2600	0.304560828744101	0.210013339507633	0
354	1	0.0119980068899469	2600	0.0154990474090412	0.543527472495297	0
355	1	0.00935785089088581	2600	0.292292106876341	0.241638460928618	0
356	1	0.00995344407296123	2600	0.299381528965240	0.584271882788730	0
357	1	0.0104760998659888	2600	0.322334290307037	0.506455940990652	0
358	1	0.00956427549949279	2600	0.487807619376489	0.349268675726566	0
359	1	0.00975319061344739	2600	0.0226393918138875	0.305126358147622	0
360	1	0.00899578456989767	2600	0.0106110751631450	0.576534726921603	0
361	1	0.00848124128574852	2600	0.256971415633905	0.380220111484953	0
362	1	0.00842009793822123	2600	0.0810488419740914	0.472600960339889	0
363	1	0.0118932320413187	2600	0.166579024462097	0.558753753166928	0
364	1	0.0117741861784650	2600	0.375940263969152	0.233836028485442	0
365	1	0.00820876162909861	2600	0.137506807214144	0.373596147985892	0
366	1	0.0100623001878348	2600	0.246025072954486	0.222242013666647	0
367	1	0.00895024975678353	2600	0.127273305431374	0.375321124443724	0
368	1	0.00821360659962850	2600	0.168467934841449	0.389367044900016	0
369	1	0.0102870769890236	2600	0.248890253650060	0.489526556509225	0
370	1	0.00916343626963527	2600	0.132322767529362	0.355168597466162	0
371	1	0.00872461178351102	2600	0.188212929198248	0.367261219834130	0
372	1	0.0104957345828978	2600	0.166914362801567	0.341769637929774	0
373	1	0.00947228195166345	2600	0.485498802195198	0.286209618568033	0
374	1	0.00929816341746361	2600	0.251352462039974	0.516975366603467	0
375	1	0.0112962164685364	2600	0.0688921652102914	0.416454182442984	0
376	1	0.00807530929446480	2600	0.153801304056000	0.276796807384137	0
377	1	0.0111613095200691	2600	0.00912542954754719	0.507804528497297	0
378	1	0.00998020292853201	2600	0.251428108447214	0.550858408381413	0
379	1	0.00801032120515227	2600	0.369284569801289	0.409576661937276	0
380	1	0.0109379964865914	2600	0.289073747014601	0.334809034799093	0
381	1	0.00870765307100654	2600	0.292985501094624	0.468625406102483	0
382	1	0.0109057331541368	2600	0.0400364970700581	0.349860249665988	0
383	1	0.00923059751247654	2600	0.435403200251659	0.262460957717867	0
384	1	0.00843270234036517	2600	0.479006470707833	0.433893759112155	0
385	1	0.0106890263968565	2600	0.294840051681474	0.205273752971486	0
386	1	0.00955118722290981	2600	0.444684435809197	0.204643580839404	0
387	1	0.0103133636574655	2600	0.156729650101038	0.317147942775475	0
388	1	0.00938502968095387	2600	0.263128910875887	0.286418591149997	0
389	1	0.00846120291188016	2600	0.268850016724157	0.245054641460090	0
390	1	0.00874709824832430	2600	0.362292671500032	0.334581489459753	0
391	1	0.0105016577103012	2600	0.390565353831455	0.576297461041444	0
392	1	0.0115175087657577	2600	0.126266756555978	0.574398734776167	0
393	1	0.0113149074891198	2600	0.132509402974415	0.470600582757304	0
394	1	0.0107047189547857	2600	0.0418633550042671	0.574743468762599	0
395	1	0.0110048211533813	2600	0.423345361557316	0.238020339411525	0
396	1	0.0103102973563575	2600	0.477230757402744	0.316108033165129	0
397	1	0.0104767671042313	2600	0.0859653530163758	0.224689537053944	0
398	1	0.0119894780021050	2600	0.425450862669268	0.258789877259363	0
399	1	0.0115726303441408	2600	0.464437858118211	0.475564112960810	0
400	1	0.0114889169047761	2600	0.365339514068029	0.546749698141193	0
401	1	0.0105856837743978	2600	0.415910984018241	0.247709855605914	0
402	1	0.0117296862513322	2600	0.319385804715515	0.518910656335368	0
403	1	0.00912256380679054	2600	0.361413055620047	0.482612777481400	0
404	1	0.0100156428848990	2600	0.181229052655141	0.434786834240358	0
405	1	0.00881207125907782	2600	0.361675153307107	0.376274619369423	0
406	1	0.00812244535564243	2600	0.420313282452517	0.275856013882418	0
407	1	0.0105766920748030	2600	0.102491472908876	0.333694183608579	0
408	1	0.0108111505174696	2600	0.125348069863671	0.205372957377936	0
409	1	0.00826842776834296	2600	0.299983634845871	0.516148198242462	0
410	1	0.00929085708124820	2600	0.418246683371904	0.267220893695735	0
411	1	0.00858120815750367	2600	0.115620504994437	0.558773158731483	0
412	1	0.0111541840011485	2600	0.227765562975079	0.246395057970137	0
413	1	0.0101384908042042	2600	0.208214707396564	0.407045661612856	0
414	1	0.0111302475034414	2600	0.152587971283124	0.506861242930336	0
415	1	0.0100564746973855	2600	0.442383846076507	0.419356175688627	0
416	1	0.00884998256352094	2600	0.138973011894149	0.563528803094420	0
417	1	0.0117253270826614	2600	0.409704044501058	0.297927157006480	0
418	1	0.00817825417977946	2600	0.455958454259673	0.497409695763899	0
419	1	0.0116835774297305	2600	0.495813550829084	0.550684174969229	0
420	1	0.0104613456468440	2600	0.326552753004785	0.419008624426836	0
421	1	0.0105352365056938	2600	0.366118934373292	0.295214937850118	0
422	1	0.0105880663184616	2600	0.0217321967166793	0.275652213771124	0
423	1	0.00952655567801939	2600	0.0234929025640688	0.341019361530365	0
424	1	0.0118414464188906	2600	0.184163768100219	0.297271128392987	0
425	1	0.0101215130280136	2600	0.322160925966288	0.495138326427067	0
426	1	0.0103370450467619	2600	0.392192030169083	0.469395564738156	0
427	1	0.0117771500051515	2600	0.120979377068660	0.242527472886879	0
428	1	0.00945508067937295	2600	0.213954803364534	0.325229842372155	0
429	1	0.0116532770047323	2600	0.432909684877908	0.368125846960504	0